n -t * -s 0  -x 0 -y 0 -Z 0 -z 71+i*100  -v circle -c black
n -t * -s 1  -x 64.971780708512185 -y 79 -Z 0 -z 71+i*100  -v circle -c black
n -t * -s 2  -x 1.4367359287276567 -y 158 -Z 0 -z 71+i*100  -v circle -c black
n -t * -s 3  -x 10.83113118858595 -y 237 -Z 0 -z 71+i*100  -v circle -c black
n -t * -s 4  -x 182.42918208540843 -y 316 -Z 0 -z 71+i*100  -v circle -c black
n -t * -s 5  -x 29.07913682473783 -y 395 -Z 0 -z 71+i*100  -v circle -c black
n -t * -s 6  -x 303.66313604249768 -y 474 -Z 0 -z 71+i*100  -v circle -c black
n -t * -s 7  -x 217.38204396766704 -y 553 -Z 0 -z 71+i*100  -v circle -c black
n -t * -s 8  -x 106.30053094881612 -y 632 -Z 0 -z 71+i*100  -v circle -c black
n -t * -s 9  -x 262.15161384649184 -y 711 -Z 0 -z 71+i*100  -v circle -c black
n -t * -s 10  -x 85.748797764884671 -y 790 -Z 0 -z 71+i*100  -v circle -c black
n -t * -s 11  -x 649.04843785848868 -y 869 -Z 0 -z 71+i*100  -v circle -c black
n -t * -s 12  -x 360.10373194706801 -y 948 -Z 0 -z 71+i*100  -v circle -c black
n -t * -s 13  -x 549.70807056953572 -y 1027 -Z 0 -z 71+i*100  -v circle -c black
n -t * -s 14  -x 685.50683620176608 -y 1106 -Z 0 -z 71+i*100  -v circle -c black
n -t * -s 15  -x 914.3529033005949 -y 1185 -Z 0 -z 71+i*100  -v circle -c black
n -t * -s 16  -x 687.19549130610915 -y 1264 -Z 0 -z 71+i*100  -v circle -c black
n -t * -s 17  -x 1188.5362806369253 -y 1343 -Z 0 -z 71+i*100  -v circle -c black
n -t * -s 18  -x 1150.166821558106 -y 1422 -Z 0 -z 71+i*100  -v circle -c black
n -t * -s 19  -x 1165.0904785949226 -y 1501 -Z 0 -z 71+i*100  -v circle -c black
n -t * -s 20  -x 990.18288933214853 -y 1580 -Z 0 -z 71+i*100  -v circle -c black
n -t * -s 21  -x 1075.0120556936656 -y 1659 -Z 0 -z 71+i*100  -v circle -c black
n -t * -s 22  -x 1341.6019502671443 -y 1738 -Z 0 -z 71+i*100  -v circle -c black
V -t * -v 1.0a5 -a 0
W -t * -x 1800 -y 840
A -t * -n 1 -p 0 -o 0xffffffff -c 31 -a 1
A -t * -h 1 -m 2147483647 -s 0
n -t 0 -s 0 -S COLOR -c red -o green -i red -I green
n -t 0 -s 1 -S COLOR -c red -o green -i red -I green
n -t 0 -s 2 -S COLOR -c red -o green -i red -I green
n -t 0 -s 3 -S COLOR -c red -o green -i red -I green
n -t 0 -s 4 -S COLOR -c red -o green -i red -I green
n -t 0 -s 5 -S COLOR -c red -o green -i red -I green
n -t 0 -s 6 -S COLOR -c red -o green -i red -I green
n -t 0 -s 7 -S COLOR -c red -o green -i red -I green
n -t 0 -s 8 -S COLOR -c red -o green -i red -I green
n -t 0 -s 9 -S COLOR -c red -o green -i red -I green
n -t 0 -s 10 -S COLOR -c red -o green -i red -I green
n -t 0 -s 11 -S COLOR -c blue -o yellow -i blue -I yellow
n -t 0 -s 12 -S COLOR -c blue -o yellow -i blue -I yellow
n -t 0 -s 13 -S COLOR -c blue -o yellow -i blue -I yellow
n -t 0 -s 14 -S COLOR -c blue -o yellow -i blue -I yellow
n -t 0 -s 15 -S COLOR -c blue -o yellow -i blue -I yellow
n -t 0 -s 16 -S COLOR -c blue -o yellow -i blue -I yellow
n -t 0 -s 17 -S COLOR -c blue -o yellow -i blue -I yellow
n -t 0 -s 18 -S COLOR -c blue -o yellow -i blue -I yellow
n -t 0 -s 19 -S COLOR -c blue -o yellow -i blue -I yellow
n -t 0 -s 20 -S COLOR -c green -o pink -i green -I pink
n -t 0 -s 21 -S COLOR -c green -o pink -i green -I pink
n -t 0 -s 22 -S COLOR -c green -o pink -i green -I pink
v -t 0 set_rate_ext 0.012500000000000001 1
+ -t 0.000000000 -s 12 -d -1 -p cbr -e 1000 -c 2 -a 0 -i 0 -k AGT 
- -t 0.000000000 -s 12 -d -1 -p cbr -e 1000 -c 2 -a 0 -i 0 -k AGT
h -t 0.000000000 -s 12 -d -1 -p cbr -e 1000 -c 2 -a 0 -i 0 -k AGT
+ -t 0.000000000 -s 0 -d -1 -p AODV -e 44 -c 2 -a 0 -i 0 -k RTR 
- -t 0.000000000 -s 0 -d -1 -p AODV -e 44 -c 2 -a 0 -i 0 -k RTR
h -t 0.000000000 -s 0 -d -1 -p AODV -e 44 -c 2 -a 0 -i 0 -k RTR
+ -t 0.000000000 -s 1 -d -1 -p AODV -e 44 -c 2 -a 0 -i 0 -k RTR 
- -t 0.000000000 -s 1 -d -1 -p AODV -e 44 -c 2 -a 0 -i 0 -k RTR
h -t 0.000000000 -s 1 -d -1 -p AODV -e 44 -c 2 -a 0 -i 0 -k RTR
+ -t 0.000000000 -s 2 -d -1 -p AODV -e 44 -c 2 -a 0 -i 0 -k RTR 
- -t 0.000000000 -s 2 -d -1 -p AODV -e 44 -c 2 -a 0 -i 0 -k RTR
h -t 0.000000000 -s 2 -d -1 -p AODV -e 44 -c 2 -a 0 -i 0 -k RTR
+ -t 0.000000000 -s 3 -d -1 -p AODV -e 44 -c 2 -a 0 -i 0 -k RTR 
- -t 0.000000000 -s 3 -d -1 -p AODV -e 44 -c 2 -a 0 -i 0 -k RTR
h -t 0.000000000 -s 3 -d -1 -p AODV -e 44 -c 2 -a 0 -i 0 -k RTR
+ -t 0.000000000 -s 4 -d -1 -p AODV -e 44 -c 2 -a 0 -i 0 -k RTR 
- -t 0.000000000 -s 4 -d -1 -p AODV -e 44 -c 2 -a 0 -i 0 -k RTR
h -t 0.000000000 -s 4 -d -1 -p AODV -e 44 -c 2 -a 0 -i 0 -k RTR
+ -t 0.000000000 -s 5 -d -1 -p AODV -e 44 -c 2 -a 0 -i 0 -k RTR 
- -t 0.000000000 -s 5 -d -1 -p AODV -e 44 -c 2 -a 0 -i 0 -k RTR
h -t 0.000000000 -s 5 -d -1 -p AODV -e 44 -c 2 -a 0 -i 0 -k RTR
+ -t 0.000000000 -s 6 -d -1 -p AODV -e 44 -c 2 -a 0 -i 0 -k RTR 
- -t 0.000000000 -s 6 -d -1 -p AODV -e 44 -c 2 -a 0 -i 0 -k RTR
h -t 0.000000000 -s 6 -d -1 -p AODV -e 44 -c 2 -a 0 -i 0 -k RTR
+ -t 0.000000000 -s 7 -d -1 -p AODV -e 44 -c 2 -a 0 -i 0 -k RTR 
- -t 0.000000000 -s 7 -d -1 -p AODV -e 44 -c 2 -a 0 -i 0 -k RTR
h -t 0.000000000 -s 7 -d -1 -p AODV -e 44 -c 2 -a 0 -i 0 -k RTR
+ -t 0.000000000 -s 8 -d -1 -p AODV -e 44 -c 2 -a 0 -i 0 -k RTR 
- -t 0.000000000 -s 8 -d -1 -p AODV -e 44 -c 2 -a 0 -i 0 -k RTR
h -t 0.000000000 -s 8 -d -1 -p AODV -e 44 -c 2 -a 0 -i 0 -k RTR
+ -t 0.000000000 -s 9 -d -1 -p AODV -e 44 -c 2 -a 0 -i 0 -k RTR 
- -t 0.000000000 -s 9 -d -1 -p AODV -e 44 -c 2 -a 0 -i 0 -k RTR
h -t 0.000000000 -s 9 -d -1 -p AODV -e 44 -c 2 -a 0 -i 0 -k RTR
+ -t 0.000000000 -s 10 -d -1 -p AODV -e 44 -c 2 -a 0 -i 0 -k RTR 
- -t 0.000000000 -s 10 -d -1 -p AODV -e 44 -c 2 -a 0 -i 0 -k RTR
h -t 0.000000000 -s 10 -d -1 -p AODV -e 44 -c 2 -a 0 -i 0 -k RTR
+ -t 0.000000000 -s 11 -d -1 -p AODV -e 44 -c 2 -a 0 -i 0 -k RTR 
- -t 0.000000000 -s 11 -d -1 -p AODV -e 44 -c 2 -a 0 -i 0 -k RTR
h -t 0.000000000 -s 11 -d -1 -p AODV -e 44 -c 2 -a 0 -i 0 -k RTR
+ -t 0.000000000 -s 12 -d -1 -p AODV -e 44 -c 2 -a 0 -i 0 -k RTR 
- -t 0.000000000 -s 12 -d -1 -p AODV -e 44 -c 2 -a 0 -i 0 -k RTR
h -t 0.000000000 -s 12 -d -1 -p AODV -e 44 -c 2 -a 0 -i 0 -k RTR
+ -t 0.000000000 -s 13 -d -1 -p AODV -e 44 -c 2 -a 0 -i 0 -k RTR 
- -t 0.000000000 -s 13 -d -1 -p AODV -e 44 -c 2 -a 0 -i 0 -k RTR
h -t 0.000000000 -s 13 -d -1 -p AODV -e 44 -c 2 -a 0 -i 0 -k RTR
+ -t 0.000000000 -s 14 -d -1 -p AODV -e 44 -c 2 -a 0 -i 0 -k RTR 
- -t 0.000000000 -s 14 -d -1 -p AODV -e 44 -c 2 -a 0 -i 0 -k RTR
h -t 0.000000000 -s 14 -d -1 -p AODV -e 44 -c 2 -a 0 -i 0 -k RTR
+ -t 0.000000000 -s 15 -d -1 -p AODV -e 44 -c 2 -a 0 -i 0 -k RTR 
- -t 0.000000000 -s 15 -d -1 -p AODV -e 44 -c 2 -a 0 -i 0 -k RTR
h -t 0.000000000 -s 15 -d -1 -p AODV -e 44 -c 2 -a 0 -i 0 -k RTR
+ -t 0.000000000 -s 16 -d -1 -p AODV -e 44 -c 2 -a 0 -i 0 -k RTR 
- -t 0.000000000 -s 16 -d -1 -p AODV -e 44 -c 2 -a 0 -i 0 -k RTR
h -t 0.000000000 -s 16 -d -1 -p AODV -e 44 -c 2 -a 0 -i 0 -k RTR
+ -t 0.000000000 -s 17 -d -1 -p AODV -e 44 -c 2 -a 0 -i 0 -k RTR 
- -t 0.000000000 -s 17 -d -1 -p AODV -e 44 -c 2 -a 0 -i 0 -k RTR
h -t 0.000000000 -s 17 -d -1 -p AODV -e 44 -c 2 -a 0 -i 0 -k RTR
+ -t 0.000000000 -s 18 -d -1 -p AODV -e 44 -c 2 -a 0 -i 0 -k RTR 
- -t 0.000000000 -s 18 -d -1 -p AODV -e 44 -c 2 -a 0 -i 0 -k RTR
h -t 0.000000000 -s 18 -d -1 -p AODV -e 44 -c 2 -a 0 -i 0 -k RTR
+ -t 0.000000000 -s 19 -d -1 -p AODV -e 44 -c 2 -a 0 -i 0 -k RTR 
- -t 0.000000000 -s 19 -d -1 -p AODV -e 44 -c 2 -a 0 -i 0 -k RTR
h -t 0.000000000 -s 19 -d -1 -p AODV -e 44 -c 2 -a 0 -i 0 -k RTR
+ -t 0.000000000 -s 20 -d -1 -p AODV -e 44 -c 2 -a 0 -i 0 -k RTR 
- -t 0.000000000 -s 20 -d -1 -p AODV -e 44 -c 2 -a 0 -i 0 -k RTR
h -t 0.000000000 -s 20 -d -1 -p AODV -e 44 -c 2 -a 0 -i 0 -k RTR
+ -t 0.000000000 -s 21 -d -1 -p AODV -e 44 -c 2 -a 0 -i 0 -k RTR 
- -t 0.000000000 -s 21 -d -1 -p AODV -e 44 -c 2 -a 0 -i 0 -k RTR
h -t 0.000000000 -s 21 -d -1 -p AODV -e 44 -c 2 -a 0 -i 0 -k RTR
+ -t 0.000000000 -s 22 -d -1 -p AODV -e 44 -c 2 -a 0 -i 0 -k RTR 
- -t 0.000000000 -s 22 -d -1 -p AODV -e 44 -c 2 -a 0 -i 0 -k RTR
h -t 0.000000000 -s 22 -d -1 -p AODV -e 44 -c 2 -a 0 -i 0 -k RTR
+ -t 0.000000000 -s 12 -d -1 -p AODV -e 48 -c 2 -a 0 -i 0 -k RTR 
- -t 0.000000000 -s 12 -d -1 -p AODV -e 48 -c 2 -a 0 -i 0 -k RTR
h -t 0.000000000 -s 12 -d -1 -p AODV -e 48 -c 2 -a 0 -i 0 -k RTR
+ -t 0.000095000 -s 0 -d -1 -p AODV -e 102 -c 2 -a 0 -i 0 -k MAC 
- -t 0.000095000 -s 0 -d -1 -p AODV -e 102 -c 2 -a 0 -i 0 -k MAC
h -t 0.000095000 -s 0 -d -1 -p AODV -e 102 -c 2 -a 0 -i 0 -k MAC
+ -t 0.000115000 -s 8 -d -1 -p AODV -e 102 -c 2 -a 0 -i 0 -k MAC 
- -t 0.000115000 -s 8 -d -1 -p AODV -e 102 -c 2 -a 0 -i 0 -k MAC
h -t 0.000115000 -s 8 -d -1 -p AODV -e 102 -c 2 -a 0 -i 0 -k MAC
d -t 0.000116355 -s 3 -d -1 -p AODV -e 102 -c 2 -a 0 -i 0 -k MAC
+ -t 0.000135000 -s 20 -d -1 -p AODV -e 102 -c 2 -a 0 -i 0 -k MAC 
- -t 0.000135000 -s 20 -d -1 -p AODV -e 102 -c 2 -a 0 -i 0 -k MAC
h -t 0.000135000 -s 20 -d -1 -p AODV -e 102 -c 2 -a 0 -i 0 -k MAC
+ -t 0.000215000 -s 11 -d -1 -p AODV -e 102 -c 2 -a 0 -i 0 -k MAC 
- -t 0.000215000 -s 11 -d -1 -p AODV -e 102 -c 2 -a 0 -i 0 -k MAC
h -t 0.000215000 -s 11 -d -1 -p AODV -e 102 -c 2 -a 0 -i 0 -k MAC
r -t 0.000911341 -s 1 -d -1 -p AODV -e 44 -c 2 -a 0 -i 0 -k MAC
r -t 0.000911527 -s 2 -d -1 -p AODV -e 44 -c 2 -a 0 -i 0 -k MAC
r -t 0.000931454 -s 7 -d -1 -p AODV -e 44 -c 2 -a 0 -i 0 -k MAC
r -t 0.000931531 -s 10 -d -1 -p AODV -e 44 -c 2 -a 0 -i 0 -k MAC
r -t 0.000931582 -s 9 -d -1 -p AODV -e 44 -c 2 -a 0 -i 0 -k MAC
d -t 0.000931831 -s 5 -d -1 -p AODV -e 102 -c 2 -a 0 -i 0 -k MAC
r -t 0.000936341 -s 1 -d -1 -p AODV -e 44 -c 2 -a 0 -i 0 -k RTR
r -t 0.000936527 -s 2 -d -1 -p AODV -e 44 -c 2 -a 0 -i 0 -k RTR
r -t 0.000951386 -s 21 -d -1 -p AODV -e 44 -c 2 -a 0 -i 0 -k MAC
r -t 0.000951640 -s 19 -d -1 -p AODV -e 44 -c 2 -a 0 -i 0 -k MAC
r -t 0.000951750 -s 18 -d -1 -p AODV -e 44 -c 2 -a 0 -i 0 -k MAC
r -t 0.000956454 -s 7 -d -1 -p AODV -e 44 -c 2 -a 0 -i 0 -k RTR
r -t 0.000956531 -s 10 -d -1 -p AODV -e 44 -c 2 -a 0 -i 0 -k RTR
r -t 0.000956582 -s 9 -d -1 -p AODV -e 44 -c 2 -a 0 -i 0 -k RTR
r -t 0.000976386 -s 21 -d -1 -p AODV -e 44 -c 2 -a 0 -i 0 -k RTR
r -t 0.000976640 -s 19 -d -1 -p AODV -e 44 -c 2 -a 0 -i 0 -k RTR
r -t 0.000976750 -s 18 -d -1 -p AODV -e 44 -c 2 -a 0 -i 0 -k RTR
r -t 0.001031622 -s 13 -d -1 -p AODV -e 44 -c 2 -a 0 -i 0 -k MAC
r -t 0.001031799 -s 14 -d -1 -p AODV -e 44 -c 2 -a 0 -i 0 -k MAC
r -t 0.001056622 -s 13 -d -1 -p AODV -e 44 -c 2 -a 0 -i 0 -k RTR
r -t 0.001056799 -s 14 -d -1 -p AODV -e 44 -c 2 -a 0 -i 0 -k RTR
+ -t 0.001061386 -s 21 -d -1 -p AODV -e 102 -c 2 -a 0 -i 0 -k MAC 
- -t 0.001061386 -s 21 -d -1 -p AODV -e 102 -c 2 -a 0 -i 0 -k MAC
h -t 0.001061386 -s 21 -d -1 -p AODV -e 102 -c 2 -a 0 -i 0 -k MAC
+ -t 0.001141799 -s 14 -d -1 -p AODV -e 102 -c 2 -a 0 -i 0 -k MAC 
- -t 0.001141799 -s 14 -d -1 -p AODV -e 102 -c 2 -a 0 -i 0 -k MAC
h -t 0.001141799 -s 14 -d -1 -p AODV -e 102 -c 2 -a 0 -i 0 -k MAC
+ -t 0.001181341 -s 1 -d -1 -p AODV -e 102 -c 2 -a 0 -i 0 -k MAC 
- -t 0.001181341 -s 1 -d -1 -p AODV -e 102 -c 2 -a 0 -i 0 -k MAC
h -t 0.001181341 -s 1 -d -1 -p AODV -e 102 -c 2 -a 0 -i 0 -k MAC
+ -t 0.001301531 -s 10 -d -1 -p AODV -e 102 -c 2 -a 0 -i 0 -k MAC 
- -t 0.001301531 -s 10 -d -1 -p AODV -e 102 -c 2 -a 0 -i 0 -k MAC
h -t 0.001301531 -s 10 -d -1 -p AODV -e 102 -c 2 -a 0 -i 0 -k MAC
r -t 0.001877773 -s 20 -d -1 -p AODV -e 44 -c 2 -a 0 -i 0 -k MAC
r -t 0.001877993 -s 19 -d -1 -p AODV -e 44 -c 2 -a 0 -i 0 -k MAC
r -t 0.001878215 -s 18 -d -1 -p AODV -e 44 -c 2 -a 0 -i 0 -k MAC
r -t 0.001902773 -s 20 -d -1 -p AODV -e 44 -c 2 -a 0 -i 0 -k RTR
r -t 0.001902993 -s 19 -d -1 -p AODV -e 44 -c 2 -a 0 -i 0 -k RTR
r -t 0.001903215 -s 18 -d -1 -p AODV -e 44 -c 2 -a 0 -i 0 -k RTR
r -t 0.001958323 -s 13 -d -1 -p AODV -e 44 -c 2 -a 0 -i 0 -k MAC
r -t 0.001958326 -s 16 -d -1 -p AODV -e 44 -c 2 -a 0 -i 0 -k MAC
r -t 0.001958599 -s 11 -d -1 -p AODV -e 44 -c 2 -a 0 -i 0 -k MAC
d -t 0.001958606 -s 15 -d -1 -p AODV -e 102 -c 2 -a 0 -i 0 -k MAC
r -t 0.001983323 -s 13 -d -1 -p AODV -e 44 -c 2 -a 0 -i 0 -k RTR
r -t 0.001983326 -s 16 -d -1 -p AODV -e 44 -c 2 -a 0 -i 0 -k RTR
r -t 0.001983599 -s 11 -d -1 -p AODV -e 44 -c 2 -a 0 -i 0 -k RTR
r -t 0.001997679 -s 2 -d -1 -p AODV -e 44 -c 2 -a 0 -i 0 -k MAC
r -t 0.001997682 -s 0 -d -1 -p AODV -e 44 -c 2 -a 0 -i 0 -k MAC
r -t 0.001997898 -s 3 -d -1 -p AODV -e 44 -c 2 -a 0 -i 0 -k MAC
+ -t 0.002008215 -s 18 -d -1 -p AODV -e 102 -c 2 -a 0 -i 0 -k MAC 
- -t 0.002008215 -s 18 -d -1 -p AODV -e 102 -c 2 -a 0 -i 0 -k MAC
h -t 0.002008215 -s 18 -d -1 -p AODV -e 102 -c 2 -a 0 -i 0 -k MAC
r -t 0.002022679 -s 2 -d -1 -p AODV -e 44 -c 2 -a 0 -i 0 -k RTR
r -t 0.002022682 -s 0 -d -1 -p AODV -e 44 -c 2 -a 0 -i 0 -k RTR
r -t 0.002022898 -s 3 -d -1 -p AODV -e 44 -c 2 -a 0 -i 0 -k RTR
r -t 0.002118062 -s 8 -d -1 -p AODV -e 44 -c 2 -a 0 -i 0 -k MAC
r -t 0.002118175 -s 9 -d -1 -p AODV -e 44 -c 2 -a 0 -i 0 -k MAC
r -t 0.002143062 -s 8 -d -1 -p AODV -e 44 -c 2 -a 0 -i 0 -k RTR
r -t 0.002143175 -s 9 -d -1 -p AODV -e 44 -c 2 -a 0 -i 0 -k RTR
+ -t 0.002207898 -s 3 -d -1 -p AODV -e 102 -c 2 -a 0 -i 0 -k MAC 
- -t 0.002207898 -s 3 -d -1 -p AODV -e 102 -c 2 -a 0 -i 0 -k MAC
h -t 0.002207898 -s 3 -d -1 -p AODV -e 102 -c 2 -a 0 -i 0 -k MAC
+ -t 0.002572586 -s 12 -d -1 -p AODV -e 102 -c 2 -a 0 -i 0 -k MAC 
- -t 0.002572586 -s 12 -d -1 -p AODV -e 102 -c 2 -a 0 -i 0 -k MAC
h -t 0.002572586 -s 12 -d -1 -p AODV -e 102 -c 2 -a 0 -i 0 -k MAC
r -t 0.002824483 -s 19 -d -1 -p AODV -e 44 -c 2 -a 0 -i 0 -k MAC
r -t 0.002824508 -s 17 -d -1 -p AODV -e 44 -c 2 -a 0 -i 0 -k MAC
r -t 0.002824965 -s 20 -d -1 -p AODV -e 44 -c 2 -a 0 -i 0 -k MAC
r -t 0.002825044 -s 21 -d -1 -p AODV -e 44 -c 2 -a 0 -i 0 -k MAC
r -t 0.002849483 -s 19 -d -1 -p AODV -e 44 -c 2 -a 0 -i 0 -k RTR
r -t 0.002849508 -s 17 -d -1 -p AODV -e 44 -c 2 -a 0 -i 0 -k RTR
r -t 0.002849965 -s 20 -d -1 -p AODV -e 44 -c 2 -a 0 -i 0 -k RTR
r -t 0.002850044 -s 21 -d -1 -p AODV -e 44 -c 2 -a 0 -i 0 -k RTR
r -t 0.003024163 -s 2 -d -1 -p AODV -e 44 -c 2 -a 0 -i 0 -k MAC
r -t 0.003024428 -s 5 -d -1 -p AODV -e 44 -c 2 -a 0 -i 0 -k MAC
r -t 0.003024454 -s 1 -d -1 -p AODV -e 44 -c 2 -a 0 -i 0 -k MAC
r -t 0.003024527 -s 4 -d -1 -p AODV -e 44 -c 2 -a 0 -i 0 -k MAC
r -t 0.003024689 -s 0 -d -1 -p AODV -e 44 -c 2 -a 0 -i 0 -k MAC
+ -t 0.003034508 -s 17 -d -1 -p AODV -e 102 -c 2 -a 0 -i 0 -k MAC 
- -t 0.003034508 -s 17 -d -1 -p AODV -e 102 -c 2 -a 0 -i 0 -k MAC
h -t 0.003034508 -s 17 -d -1 -p AODV -e 102 -c 2 -a 0 -i 0 -k MAC
r -t 0.003049163 -s 2 -d -1 -p AODV -e 44 -c 2 -a 0 -i 0 -k RTR
r -t 0.003049428 -s 5 -d -1 -p AODV -e 44 -c 2 -a 0 -i 0 -k RTR
r -t 0.003049454 -s 1 -d -1 -p AODV -e 44 -c 2 -a 0 -i 0 -k RTR
r -t 0.003049527 -s 4 -d -1 -p AODV -e 44 -c 2 -a 0 -i 0 -k RTR
r -t 0.003049689 -s 0 -d -1 -p AODV -e 44 -c 2 -a 0 -i 0 -k RTR
+ -t 0.003334163 -s 2 -d -1 -p AODV -e 102 -c 2 -a 0 -i 0 -k MAC 
- -t 0.003334163 -s 2 -d -1 -p AODV -e 102 -c 2 -a 0 -i 0 -k MAC
h -t 0.003334163 -s 2 -d -1 -p AODV -e 102 -c 2 -a 0 -i 0 -k MAC
r -t 0.003389271 -s 13 -d -1 -p AODV -e 44 -c 2 -a 0 -i 0 -k MAC
r -t 0.003414271 -s 13 -d -1 -p AODV -e 44 -c 2 -a 0 -i 0 -k RTR
+ -t 0.003479271 -s 13 -d -1 -p AODV -e 102 -c 2 -a 0 -i 0 -k MAC 
- -t 0.003479271 -s 13 -d -1 -p AODV -e 102 -c 2 -a 0 -i 0 -k MAC
h -t 0.003479271 -s 13 -d -1 -p AODV -e 102 -c 2 -a 0 -i 0 -k MAC
r -t 0.003850801 -s 18 -d -1 -p AODV -e 44 -c 2 -a 0 -i 0 -k MAC
r -t 0.003851040 -s 19 -d -1 -p AODV -e 44 -c 2 -a 0 -i 0 -k MAC
r -t 0.003875801 -s 18 -d -1 -p AODV -e 44 -c 2 -a 0 -i 0 -k RTR
r -t 0.003876040 -s 19 -d -1 -p AODV -e 44 -c 2 -a 0 -i 0 -k RTR
+ -t 0.004121040 -s 19 -d -1 -p AODV -e 102 -c 2 -a 0 -i 0 -k MAC 
- -t 0.004121040 -s 19 -d -1 -p AODV -e 102 -c 2 -a 0 -i 0 -k MAC
h -t 0.004121040 -s 19 -d -1 -p AODV -e 102 -c 2 -a 0 -i 0 -k MAC
r -t 0.004150428 -s 3 -d -1 -p AODV -e 44 -c 2 -a 0 -i 0 -k MAC
r -t 0.004150501 -s 1 -d -1 -p AODV -e 44 -c 2 -a 0 -i 0 -k MAC
r -t 0.004150690 -s 0 -d -1 -p AODV -e 44 -c 2 -a 0 -i 0 -k MAC
r -t 0.004150958 -s 5 -d -1 -p AODV -e 44 -c 2 -a 0 -i 0 -k MAC
r -t 0.004150964 -s 4 -d -1 -p AODV -e 44 -c 2 -a 0 -i 0 -k MAC
r -t 0.004175428 -s 3 -d -1 -p AODV -e 44 -c 2 -a 0 -i 0 -k RTR
r -t 0.004175501 -s 1 -d -1 -p AODV -e 44 -c 2 -a 0 -i 0 -k RTR
r -t 0.004175690 -s 0 -d -1 -p AODV -e 44 -c 2 -a 0 -i 0 -k RTR
r -t 0.004175958 -s 5 -d -1 -p AODV -e 44 -c 2 -a 0 -i 0 -k RTR
r -t 0.004175964 -s 4 -d -1 -p AODV -e 44 -c 2 -a 0 -i 0 -k RTR
r -t 0.004295795 -s 14 -d -1 -p AODV -e 44 -c 2 -a 0 -i 0 -k MAC
r -t 0.004295893 -s 11 -d -1 -p AODV -e 44 -c 2 -a 0 -i 0 -k MAC
r -t 0.004295956 -s 12 -d -1 -p AODV -e 44 -c 2 -a 0 -i 0 -k MAC
r -t 0.004320795 -s 14 -d -1 -p AODV -e 44 -c 2 -a 0 -i 0 -k RTR
r -t 0.004320893 -s 11 -d -1 -p AODV -e 44 -c 2 -a 0 -i 0 -k RTR
r -t 0.004320956 -s 12 -d -1 -p AODV -e 44 -c 2 -a 0 -i 0 -k RTR
+ -t 0.004320958 -s 5 -d -1 -p AODV -e 102 -c 2 -a 0 -i 0 -k MAC 
- -t 0.004320958 -s 5 -d -1 -p AODV -e 102 -c 2 -a 0 -i 0 -k MAC
h -t 0.004320958 -s 5 -d -1 -p AODV -e 102 -c 2 -a 0 -i 0 -k MAC
+ -t 0.004385956 -s 12 -d -1 -p AODV -e 106 -c 2 -a 0 -i 0 -k MAC 
- -t 0.004385956 -s 12 -d -1 -p AODV -e 106 -c 2 -a 0 -i 0 -k MAC
h -t 0.004385956 -s 12 -d -1 -p AODV -e 106 -c 2 -a 0 -i 0 -k MAC
d -t 0.004387307 -s 8 -d -1 -p AODV -e 102 -c 2 -a 0 -i 0 -k MAC
d -t 0.004387356 -s 7 -d -1 -p AODV -e 102 -c 2 -a 0 -i 0 -k MAC
r -t 0.004937308 -s 18 -d -1 -p AODV -e 44 -c 2 -a 0 -i 0 -k MAC
r -t 0.004937573 -s 17 -d -1 -p AODV -e 44 -c 2 -a 0 -i 0 -k MAC
r -t 0.004937647 -s 21 -d -1 -p AODV -e 44 -c 2 -a 0 -i 0 -k MAC
r -t 0.004937680 -s 20 -d -1 -p AODV -e 44 -c 2 -a 0 -i 0 -k MAC
r -t 0.004962308 -s 18 -d -1 -p AODV -e 44 -c 2 -a 0 -i 0 -k RTR
r -t 0.004962573 -s 17 -d -1 -p AODV -e 44 -c 2 -a 0 -i 0 -k RTR
r -t 0.004962647 -s 21 -d -1 -p AODV -e 44 -c 2 -a 0 -i 0 -k RTR
r -t 0.004962680 -s 20 -d -1 -p AODV -e 44 -c 2 -a 0 -i 0 -k RTR
r -t 0.005137488 -s 3 -d -1 -p AODV -e 44 -c 2 -a 0 -i 0 -k MAC
r -t 0.005137533 -s 4 -d -1 -p AODV -e 44 -c 2 -a 0 -i 0 -k MAC
r -t 0.005137754 -s 2 -d -1 -p AODV -e 44 -c 2 -a 0 -i 0 -k MAC
r -t 0.005162488 -s 3 -d -1 -p AODV -e 44 -c 2 -a 0 -i 0 -k RTR
r -t 0.005162533 -s 4 -d -1 -p AODV -e 44 -c 2 -a 0 -i 0 -k RTR
r -t 0.005162754 -s 2 -d -1 -p AODV -e 44 -c 2 -a 0 -i 0 -k RTR
r -t 0.005234640 -s 13 -d -1 -p AODV -e 48 -c 2 -a 0 -i 0 -k MAC
r -t 0.005259640 -s 13 -d -1 -p AODV -e 48 -c 2 -a 0 -i 0 -k RTR
+ -t 0.005367533 -s 4 -d -1 -p AODV -e 102 -c 2 -a 0 -i 0 -k MAC 
- -t 0.005367533 -s 4 -d -1 -p AODV -e 102 -c 2 -a 0 -i 0 -k MAC
h -t 0.005367533 -s 4 -d -1 -p AODV -e 102 -c 2 -a 0 -i 0 -k MAC
+ -t 0.005392385 -s 15 -d -1 -p AODV -e 102 -c 2 -a 0 -i 0 -k MAC 
- -t 0.005392385 -s 15 -d -1 -p AODV -e 102 -c 2 -a 0 -i 0 -k MAC
h -t 0.005392385 -s 15 -d -1 -p AODV -e 102 -c 2 -a 0 -i 0 -k MAC
+ -t 0.005632025 -s 22 -d -1 -p AODV -e 102 -c 2 -a 0 -i 0 -k MAC 
- -t 0.005632025 -s 22 -d -1 -p AODV -e 102 -c 2 -a 0 -i 0 -k MAC
h -t 0.005632025 -s 22 -d -1 -p AODV -e 102 -c 2 -a 0 -i 0 -k MAC
r -t 0.006184108 -s 5 -d -1 -p AODV -e 44 -c 2 -a 0 -i 0 -k MAC
r -t 0.006184163 -s 3 -d -1 -p AODV -e 44 -c 2 -a 0 -i 0 -k MAC
r -t 0.006184197 -s 6 -d -1 -p AODV -e 44 -c 2 -a 0 -i 0 -k MAC
r -t 0.006184332 -s 7 -d -1 -p AODV -e 44 -c 2 -a 0 -i 0 -k MAC
r -t 0.006184334 -s 2 -d -1 -p AODV -e 44 -c 2 -a 0 -i 0 -k MAC
r -t 0.006209108 -s 5 -d -1 -p AODV -e 44 -c 2 -a 0 -i 0 -k RTR
r -t 0.006209163 -s 3 -d -1 -p AODV -e 44 -c 2 -a 0 -i 0 -k RTR
r -t 0.006209187 -s 16 -d -1 -p AODV -e 44 -c 2 -a 0 -i 0 -k MAC
r -t 0.006209192 -s 14 -d -1 -p AODV -e 44 -c 2 -a 0 -i 0 -k MAC
r -t 0.006209197 -s 6 -d -1 -p AODV -e 44 -c 2 -a 0 -i 0 -k RTR
r -t 0.006209332 -s 7 -d -1 -p AODV -e 44 -c 2 -a 0 -i 0 -k RTR
r -t 0.006209334 -s 2 -d -1 -p AODV -e 44 -c 2 -a 0 -i 0 -k RTR
r -t 0.006234187 -s 16 -d -1 -p AODV -e 44 -c 2 -a 0 -i 0 -k RTR
r -t 0.006234192 -s 14 -d -1 -p AODV -e 44 -c 2 -a 0 -i 0 -k RTR
+ -t 0.006554332 -s 7 -d -1 -p AODV -e 102 -c 2 -a 0 -i 0 -k MAC 
- -t 0.006554332 -s 7 -d -1 -p AODV -e 102 -c 2 -a 0 -i 0 -k MAC
h -t 0.006554332 -s 7 -d -1 -p AODV -e 102 -c 2 -a 0 -i 0 -k MAC
+ -t 0.006719187 -s 16 -d -1 -p AODV -e 102 -c 2 -a 0 -i 0 -k MAC 
- -t 0.006719187 -s 16 -d -1 -p AODV -e 102 -c 2 -a 0 -i 0 -k MAC
h -t 0.006719187 -s 16 -d -1 -p AODV -e 102 -c 2 -a 0 -i 0 -k MAC
r -t 0.007370722 -s 6 -d -1 -p AODV -e 44 -c 2 -a 0 -i 0 -k MAC
r -t 0.007370786 -s 8 -d -1 -p AODV -e 44 -c 2 -a 0 -i 0 -k MAC
r -t 0.007370879 -s 9 -d -1 -p AODV -e 44 -c 2 -a 0 -i 0 -k MAC
r -t 0.007371130 -s 4 -d -1 -p AODV -e 44 -c 2 -a 0 -i 0 -k MAC
r -t 0.007371151 -s 5 -d -1 -p AODV -e 44 -c 2 -a 0 -i 0 -k MAC
r -t 0.007395722 -s 6 -d -1 -p AODV -e 44 -c 2 -a 0 -i 0 -k RTR
r -t 0.007395786 -s 8 -d -1 -p AODV -e 44 -c 2 -a 0 -i 0 -k RTR
r -t 0.007395879 -s 9 -d -1 -p AODV -e 44 -c 2 -a 0 -i 0 -k RTR
r -t 0.007396130 -s 4 -d -1 -p AODV -e 44 -c 2 -a 0 -i 0 -k RTR
r -t 0.007396151 -s 5 -d -1 -p AODV -e 44 -c 2 -a 0 -i 0 -k RTR
r -t 0.007535713 -s 14 -d -1 -p AODV -e 44 -c 2 -a 0 -i 0 -k MAC
r -t 0.007535988 -s 15 -d -1 -p AODV -e 44 -c 2 -a 0 -i 0 -k MAC
r -t 0.007560713 -s 14 -d -1 -p AODV -e 44 -c 2 -a 0 -i 0 -k RTR
r -t 0.007560988 -s 15 -d -1 -p AODV -e 44 -c 2 -a 0 -i 0 -k RTR
+ -t 0.007600722 -s 6 -d -1 -p AODV -e 102 -c 2 -a 0 -i 0 -k MAC 
- -t 0.007600722 -s 6 -d -1 -p AODV -e 102 -c 2 -a 0 -i 0 -k MAC
h -t 0.007600722 -s 6 -d -1 -p AODV -e 102 -c 2 -a 0 -i 0 -k MAC
r -t 0.008417112 -s 7 -d -1 -p AODV -e 44 -c 2 -a 0 -i 0 -k MAC
r -t 0.008417386 -s 4 -d -1 -p AODV -e 44 -c 2 -a 0 -i 0 -k MAC
r -t 0.008417524 -s 9 -d -1 -p AODV -e 44 -c 2 -a 0 -i 0 -k MAC
r -t 0.008442112 -s 7 -d -1 -p AODV -e 44 -c 2 -a 0 -i 0 -k RTR
r -t 0.008442386 -s 4 -d -1 -p AODV -e 44 -c 2 -a 0 -i 0 -k RTR
r -t 0.008442524 -s 9 -d -1 -p AODV -e 44 -c 2 -a 0 -i 0 -k RTR
+ -t 0.008507524 -s 9 -d -1 -p AODV -e 102 -c 2 -a 0 -i 0 -k MAC 
- -t 0.008507524 -s 9 -d -1 -p AODV -e 102 -c 2 -a 0 -i 0 -k MAC
h -t 0.008507524 -s 9 -d -1 -p AODV -e 102 -c 2 -a 0 -i 0 -k MAC
r -t 0.009324071 -s 7 -d -1 -p AODV -e 44 -c 2 -a 0 -i 0 -k MAC
r -t 0.009324106 -s 8 -d -1 -p AODV -e 44 -c 2 -a 0 -i 0 -k MAC
r -t 0.009324168 -s 10 -d -1 -p AODV -e 44 -c 2 -a 0 -i 0 -k MAC
r -t 0.009324326 -s 6 -d -1 -p AODV -e 44 -c 2 -a 0 -i 0 -k MAC
r -t 0.009349071 -s 7 -d -1 -p AODV -e 44 -c 2 -a 0 -i 0 -k RTR
r -t 0.009349106 -s 8 -d -1 -p AODV -e 44 -c 2 -a 0 -i 0 -k RTR
r -t 0.009349168 -s 10 -d -1 -p AODV -e 44 -c 2 -a 0 -i 0 -k RTR
r -t 0.009349326 -s 6 -d -1 -p AODV -e 44 -c 2 -a 0 -i 0 -k RTR
+ -t 0.012209013 -s 13 -d -1 -p AODV -e 48 -c 2 -a 0 -i 0 -k RTR 
- -t 0.012209013 -s 13 -d -1 -p AODV -e 48 -c 2 -a 0 -i 0 -k RTR
h -t 0.012209013 -s 13 -d -1 -p AODV -e 48 -c 2 -a 0 -i 0 -k RTR
+ -t 0.012384013 -s 13 -d -1 -p AODV -e 106 -c 2 -a 0 -i 0 -k MAC 
- -t 0.012384013 -s 13 -d -1 -p AODV -e 106 -c 2 -a 0 -i 0 -k MAC
h -t 0.012384013 -s 13 -d -1 -p AODV -e 106 -c 2 -a 0 -i 0 -k MAC
r -t 0.013232537 -s 14 -d -1 -p AODV -e 48 -c 2 -a 0 -i 0 -k MAC
r -t 0.013232635 -s 11 -d -1 -p AODV -e 48 -c 2 -a 0 -i 0 -k MAC
r -t 0.013232698 -s 12 -d -1 -p AODV -e 48 -c 2 -a 0 -i 0 -k MAC
r -t 0.013257537 -s 14 -d -1 -p AODV -e 48 -c 2 -a 0 -i 0 -k RTR
r -t 0.013257635 -s 11 -d -1 -p AODV -e 48 -c 2 -a 0 -i 0 -k RTR
r -t 0.013257698 -s 12 -d -1 -p AODV -e 48 -c 2 -a 0 -i 0 -k RTR
+ -t 0.014139538 -s 14 -d -1 -p AODV -e 48 -c 2 -a 0 -i 0 -k RTR 
- -t 0.014139538 -s 14 -d -1 -p AODV -e 48 -c 2 -a 0 -i 0 -k RTR
h -t 0.014139538 -s 14 -d -1 -p AODV -e 48 -c 2 -a 0 -i 0 -k RTR
+ -t 0.014274538 -s 14 -d -1 -p AODV -e 106 -c 2 -a 0 -i 0 -k MAC 
- -t 0.014274538 -s 14 -d -1 -p AODV -e 106 -c 2 -a 0 -i 0 -k MAC
h -t 0.014274538 -s 14 -d -1 -p AODV -e 106 -c 2 -a 0 -i 0 -k MAC
r -t 0.015123062 -s 13 -d -1 -p AODV -e 48 -c 2 -a 0 -i 0 -k MAC
r -t 0.015123065 -s 16 -d -1 -p AODV -e 48 -c 2 -a 0 -i 0 -k MAC
r -t 0.015123338 -s 11 -d -1 -p AODV -e 48 -c 2 -a 0 -i 0 -k MAC
r -t 0.015123345 -s 15 -d -1 -p AODV -e 48 -c 2 -a 0 -i 0 -k MAC
r -t 0.015148062 -s 13 -d -1 -p AODV -e 48 -c 2 -a 0 -i 0 -k RTR
r -t 0.015148065 -s 16 -d -1 -p AODV -e 48 -c 2 -a 0 -i 0 -k RTR
r -t 0.015148338 -s 11 -d -1 -p AODV -e 48 -c 2 -a 0 -i 0 -k RTR
r -t 0.015148345 -s 15 -d -1 -p AODV -e 48 -c 2 -a 0 -i 0 -k RTR
+ -t 0.017857143 -s 12 -d -1 -p cbr -e 1000 -c 2 -a 0 -i 1 -k AGT 
- -t 0.017857143 -s 12 -d -1 -p cbr -e 1000 -c 2 -a 0 -i 1 -k AGT
h -t 0.017857143 -s 12 -d -1 -p cbr -e 1000 -c 2 -a 0 -i 1 -k AGT
+ -t 0.021009470 -s 15 -d -1 -p AODV -e 48 -c 2 -a 0 -i 0 -k RTR 
- -t 0.021009470 -s 15 -d -1 -p AODV -e 48 -c 2 -a 0 -i 0 -k RTR
h -t 0.021009470 -s 15 -d -1 -p AODV -e 48 -c 2 -a 0 -i 0 -k RTR
+ -t 0.021144470 -s 15 -d -1 -p AODV -e 106 -c 2 -a 0 -i 0 -k MAC 
- -t 0.021144470 -s 15 -d -1 -p AODV -e 106 -c 2 -a 0 -i 0 -k MAC
h -t 0.021144470 -s 15 -d -1 -p AODV -e 106 -c 2 -a 0 -i 0 -k MAC
+ -t 0.021401637 -s 11 -d -1 -p AODV -e 48 -c 2 -a 0 -i 0 -k RTR 
- -t 0.021401637 -s 11 -d -1 -p AODV -e 48 -c 2 -a 0 -i 0 -k RTR
h -t 0.021401637 -s 11 -d -1 -p AODV -e 48 -c 2 -a 0 -i 0 -k RTR
r -t 0.021993272 -s 16 -d -1 -p AODV -e 48 -c 2 -a 0 -i 0 -k MAC
r -t 0.021993277 -s 14 -d -1 -p AODV -e 48 -c 2 -a 0 -i 0 -k MAC
r -t 0.022018272 -s 16 -d -1 -p AODV -e 48 -c 2 -a 0 -i 0 -k RTR
r -t 0.022018277 -s 14 -d -1 -p AODV -e 48 -c 2 -a 0 -i 0 -k RTR
+ -t 0.022987845 -s 11 -d -1 -p AODV -e 106 -c 2 -a 0 -i 0 -k MAC 
- -t 0.022987845 -s 11 -d -1 -p AODV -e 106 -c 2 -a 0 -i 0 -k MAC
h -t 0.022987845 -s 11 -d -1 -p AODV -e 106 -c 2 -a 0 -i 0 -k MAC
r -t 0.023836467 -s 13 -d -1 -p AODV -e 48 -c 2 -a 0 -i 0 -k MAC
r -t 0.023836645 -s 14 -d -1 -p AODV -e 48 -c 2 -a 0 -i 0 -k MAC
r -t 0.023861467 -s 13 -d -1 -p AODV -e 48 -c 2 -a 0 -i 0 -k RTR
r -t 0.023861645 -s 14 -d -1 -p AODV -e 48 -c 2 -a 0 -i 0 -k RTR
+ -t 0.023894528 -s 16 -d -1 -p AODV -e 48 -c 2 -a 0 -i 0 -k RTR 
- -t 0.023894528 -s 16 -d -1 -p AODV -e 48 -c 2 -a 0 -i 0 -k RTR
h -t 0.023894528 -s 16 -d -1 -p AODV -e 48 -c 2 -a 0 -i 0 -k RTR
+ -t 0.024691168 -s 16 -d -1 -p AODV -e 106 -c 2 -a 0 -i 0 -k MAC 
- -t 0.024691168 -s 16 -d -1 -p AODV -e 106 -c 2 -a 0 -i 0 -k MAC
h -t 0.024691168 -s 16 -d -1 -p AODV -e 106 -c 2 -a 0 -i 0 -k MAC
r -t 0.025539695 -s 14 -d -1 -p AODV -e 48 -c 2 -a 0 -i 0 -k MAC
r -t 0.025539970 -s 15 -d -1 -p AODV -e 48 -c 2 -a 0 -i 0 -k MAC
r -t 0.025564695 -s 14 -d -1 -p AODV -e 48 -c 2 -a 0 -i 0 -k RTR
r -t 0.025564970 -s 15 -d -1 -p AODV -e 48 -c 2 -a 0 -i 0 -k RTR
+ -t 0.035714286 -s 12 -d -1 -p cbr -e 1000 -c 2 -a 0 -i 2 -k AGT 
- -t 0.035714286 -s 12 -d -1 -p cbr -e 1000 -c 2 -a 0 -i 2 -k AGT
h -t 0.035714286 -s 12 -d -1 -p cbr -e 1000 -c 2 -a 0 -i 2 -k AGT
+ -t 0.053571429 -s 12 -d -1 -p cbr -e 1000 -c 2 -a 0 -i 3 -k AGT 
- -t 0.053571429 -s 12 -d -1 -p cbr -e 1000 -c 2 -a 0 -i 3 -k AGT
h -t 0.053571429 -s 12 -d -1 -p cbr -e 1000 -c 2 -a 0 -i 3 -k AGT
+ -t 0.071428571 -s 12 -d -1 -p cbr -e 1000 -c 2 -a 0 -i 4 -k AGT 
- -t 0.071428571 -s 12 -d -1 -p cbr -e 1000 -c 2 -a 0 -i 4 -k AGT
h -t 0.071428571 -s 12 -d -1 -p cbr -e 1000 -c 2 -a 0 -i 4 -k AGT
+ -t 0.089285714 -s 12 -d -1 -p cbr -e 1000 -c 2 -a 0 -i 5 -k AGT 
- -t 0.089285714 -s 12 -d -1 -p cbr -e 1000 -c 2 -a 0 -i 5 -k AGT
h -t 0.089285714 -s 12 -d -1 -p cbr -e 1000 -c 2 -a 0 -i 5 -k AGT
+ -t 0.100000000 -s 13 -d -1 -p cbr -e 1000 -c 2 -a 0 -i 6 -k AGT 
- -t 0.100000000 -s 13 -d -1 -p cbr -e 1000 -c 2 -a 0 -i 6 -k AGT
h -t 0.100000000 -s 13 -d -1 -p cbr -e 1000 -c 2 -a 0 -i 6 -k AGT
+ -t 0.100000000 -s 13 -d -1 -p AODV -e 48 -c 2 -a 0 -i 0 -k RTR 
- -t 0.100000000 -s 13 -d -1 -p AODV -e 48 -c 2 -a 0 -i 0 -k RTR
h -t 0.100000000 -s 13 -d -1 -p AODV -e 48 -c 2 -a 0 -i 0 -k RTR
+ -t 0.100375000 -s 13 -d -1 -p AODV -e 106 -c 2 -a 0 -i 0 -k MAC 
- -t 0.100375000 -s 13 -d -1 -p AODV -e 106 -c 2 -a 0 -i 0 -k MAC
h -t 0.100375000 -s 13 -d -1 -p AODV -e 106 -c 2 -a 0 -i 0 -k MAC
r -t 0.101223524 -s 14 -d -1 -p AODV -e 48 -c 2 -a 0 -i 0 -k MAC
r -t 0.101223622 -s 11 -d -1 -p AODV -e 48 -c 2 -a 0 -i 0 -k MAC
r -t 0.101223685 -s 12 -d -1 -p AODV -e 48 -c 2 -a 0 -i 0 -k MAC
r -t 0.101248524 -s 14 -d -1 -p AODV -e 48 -c 2 -a 0 -i 0 -k RTR
r -t 0.101248622 -s 11 -d -1 -p AODV -e 48 -c 2 -a 0 -i 0 -k RTR
r -t 0.101248685 -s 12 -d -1 -p AODV -e 48 -c 2 -a 0 -i 0 -k RTR
+ -t 0.104984723 -s 12 -d -1 -p AODV -e 48 -c 2 -a 0 -i 0 -k RTR 
- -t 0.104984723 -s 12 -d -1 -p AODV -e 48 -c 2 -a 0 -i 0 -k RTR
h -t 0.104984723 -s 12 -d -1 -p AODV -e 48 -c 2 -a 0 -i 0 -k RTR
+ -t 0.105312299 -s 14 -d -1 -p AODV -e 48 -c 2 -a 0 -i 0 -k RTR 
- -t 0.105312299 -s 14 -d -1 -p AODV -e 48 -c 2 -a 0 -i 0 -k RTR
h -t 0.105312299 -s 14 -d -1 -p AODV -e 48 -c 2 -a 0 -i 0 -k RTR
+ -t 0.105607299 -s 14 -d -1 -p AODV -e 106 -c 2 -a 0 -i 0 -k MAC 
- -t 0.105607299 -s 14 -d -1 -p AODV -e 106 -c 2 -a 0 -i 0 -k MAC
h -t 0.105607299 -s 14 -d -1 -p AODV -e 106 -c 2 -a 0 -i 0 -k MAC
r -t 0.106455823 -s 13 -d -1 -p AODV -e 48 -c 2 -a 0 -i 0 -k MAC
r -t 0.106455826 -s 16 -d -1 -p AODV -e 48 -c 2 -a 0 -i 0 -k MAC
r -t 0.106456098 -s 11 -d -1 -p AODV -e 48 -c 2 -a 0 -i 0 -k MAC
r -t 0.106456106 -s 15 -d -1 -p AODV -e 48 -c 2 -a 0 -i 0 -k MAC
r -t 0.106480823 -s 13 -d -1 -p AODV -e 48 -c 2 -a 0 -i 0 -k RTR
r -t 0.106480826 -s 16 -d -1 -p AODV -e 48 -c 2 -a 0 -i 0 -k RTR
r -t 0.106481098 -s 11 -d -1 -p AODV -e 48 -c 2 -a 0 -i 0 -k RTR
r -t 0.106481106 -s 15 -d -1 -p AODV -e 48 -c 2 -a 0 -i 0 -k RTR
+ -t 0.106709852 -s 11 -d -1 -p AODV -e 48 -c 2 -a 0 -i 0 -k RTR 
- -t 0.106709852 -s 11 -d -1 -p AODV -e 48 -c 2 -a 0 -i 0 -k RTR
h -t 0.106709852 -s 11 -d -1 -p AODV -e 48 -c 2 -a 0 -i 0 -k RTR
+ -t 0.106910505 -s 12 -d -1 -p AODV -e 106 -c 2 -a 0 -i 0 -k MAC 
- -t 0.106910505 -s 12 -d -1 -p AODV -e 106 -c 2 -a 0 -i 0 -k MAC
h -t 0.106910505 -s 12 -d -1 -p AODV -e 106 -c 2 -a 0 -i 0 -k MAC
+ -t 0.107142857 -s 12 -d -1 -p cbr -e 1000 -c 2 -a 0 -i 7 -k AGT 
- -t 0.107142857 -s 12 -d -1 -p cbr -e 1000 -c 2 -a 0 -i 7 -k AGT
h -t 0.107142857 -s 12 -d -1 -p cbr -e 1000 -c 2 -a 0 -i 7 -k AGT
r -t 0.107759189 -s 13 -d -1 -p AODV -e 48 -c 2 -a 0 -i 0 -k MAC
r -t 0.107784189 -s 13 -d -1 -p AODV -e 48 -c 2 -a 0 -i 0 -k RTR
+ -t 0.108453503 -s 11 -d -1 -p AODV -e 106 -c 2 -a 0 -i 0 -k MAC 
- -t 0.108453503 -s 11 -d -1 -p AODV -e 106 -c 2 -a 0 -i 0 -k MAC
h -t 0.108453503 -s 11 -d -1 -p AODV -e 106 -c 2 -a 0 -i 0 -k MAC
r -t 0.109302125 -s 13 -d -1 -p AODV -e 48 -c 2 -a 0 -i 0 -k MAC